Title Card Required                                                     
Freq      RB3LYP TD-FC                                                6-31G(d)            
Number of atoms                            I               18
Info1-9                                    I   N=           9
          47          46        1002           0           0         100
           6         218        -501
Full Title                                 C   N=           2
Title Card Required     
Route                                      C   N=           7
# opt freq td=(singlets,nstates=6,root=1) b3lyp/6-31g(d) geo
m=connectivity          
Charge                                     I                0
Multiplicity                               I                1
Number of electrons                        I               48
Number of alpha electrons                  I               24
Number of beta electrons                   I               24
Number of basis functions                  I              114
Number of independent functions            I              114
Number of point charges in /Mol/           I                0
Number of translation vectors              I                0
Atomic numbers                             I   N=          18
           6           1           1           6           1           1
           6           1           1           6           1           1
           6           1           1           6           1           1
Nuclear charges                            R   N=          18
  6.00000000E+00  1.00000000E+00  1.00000000E+00  6.00000000E+00  1.00000000E+00
  1.00000000E+00  6.00000000E+00  1.00000000E+00  1.00000000E+00  6.00000000E+00
  1.00000000E+00  1.00000000E+00  6.00000000E+00  1.00000000E+00  1.00000000E+00
  6.00000000E+00  1.00000000E+00  1.00000000E+00
Current cartesian coordinates              R   N=          54
 -1.26878524E+00  1.90423656E+00  1.75414257E+00 -1.42105636E+00  3.96777961E+00
  2.21474615E+00 -2.14566098E+00  7.46518953E-01  3.23020740E+00 -2.24035100E+00
  1.25083217E+00 -8.33118039E-01 -4.39047670E+00  1.25669255E+00 -5.51533139E-01
 -1.68599383E+00  2.69661549E+00 -2.21651094E+00 -1.75085791E+00 -1.35647594E+00
 -1.84704300E+00 -2.67235258E+00 -2.82023615E+00 -7.08496755E-01 -2.23905864E+00
 -1.56870205E+00 -3.89883771E+00  1.26878524E+00 -1.90423656E+00 -1.75414257E+00
  1.42105636E+00 -3.96777961E+00 -2.21474615E+00  2.14566098E+00 -7.46518953E-01
 -3.23020740E+00  2.24035100E+00 -1.25083217E+00  8.33118039E-01  4.39047670E+00
 -1.25669255E+00  5.51533139E-01  1.68599383E+00 -2.69661549E+00  2.21651094E+00
  1.75085791E+00  1.35647594E+00  1.84704300E+00  2.23905864E+00  1.56870205E+00
  3.89883771E+00  2.67235258E+00  2.82023615E+00  7.08496755E-01
Number of symbols in /Mol/                 I                0
Force Field                                I                0
Atom Types                                 C   N=          18
                                                            
                                                            
                                                            
                                    
Int Atom Types                             I   N=          18
           0           0           0           0           0           0
           0           0           0           0           0           0
           0           0           0           0           0           0
MM charges                                 R   N=          18
  0.00000000E+00  0.00000000E+00  0.00000000E+00  0.00000000E+00  0.00000000E+00
  0.00000000E+00  0.00000000E+00  0.00000000E+00  0.00000000E+00  0.00000000E+00
  0.00000000E+00  0.00000000E+00  0.00000000E+00  0.00000000E+00  0.00000000E+00
  0.00000000E+00  0.00000000E+00  0.00000000E+00
Integer atomic weights                     I   N=          18
          12           1           1          12           1           1
          12           1           1          12           1           1
          12           1           1          12           1           1
Real atomic weights                        R   N=          18
  1.20000000E+01  1.00782504E+00  1.00782504E+00  1.20000000E+01  1.00782504E+00
  1.00782504E+00  1.20000000E+01  1.00782504E+00  1.00782504E+00  1.20000000E+01
  1.00782504E+00  1.00782504E+00  1.20000000E+01  1.00782504E+00  1.00782504E+00
  1.20000000E+01  1.00782504E+00  1.00782504E+00
Atom fragment info                         I   N=          18
           0           0           0           0           0           0
           0           0           0           0           0           0
           0           0           0           0           0           0
Atom residue num                           I   N=          18
           0           0           0           0           0           0
           0           0           0           0           0           0
           0           0           0           0           0           0
Nuclear spins                              I   N=          18
           0           1           1           0           1           1
           0           1           1           0           1           1
           0           1           1           0           1           1
Nuclear ZEff                               R   N=          18
 -3.60000000E+00 -1.00000000E+00 -1.00000000E+00 -3.60000000E+00 -1.00000000E+00
 -1.00000000E+00 -3.60000000E+00 -1.00000000E+00 -1.00000000E+00 -3.60000000E+00
 -1.00000000E+00 -1.00000000E+00 -3.60000000E+00 -1.00000000E+00 -1.00000000E+00
 -3.60000000E+00 -1.00000000E+00 -1.00000000E+00
Nuclear ZNuc                               R   N=          18
  6.00000000E+00  1.00000000E+00  1.00000000E+00  6.00000000E+00  1.00000000E+00
  1.00000000E+00  6.00000000E+00  1.00000000E+00  1.00000000E+00  6.00000000E+00
  1.00000000E+00  1.00000000E+00  6.00000000E+00  1.00000000E+00  1.00000000E+00
  6.00000000E+00  1.00000000E+00  1.00000000E+00
Nuclear QMom                               R   N=          18
  0.00000000E+00  0.00000000E+00  0.00000000E+00  0.00000000E+00  0.00000000E+00
  0.00000000E+00  0.00000000E+00  0.00000000E+00  0.00000000E+00  0.00000000E+00
  0.00000000E+00  0.00000000E+00  0.00000000E+00  0.00000000E+00  0.00000000E+00
  0.00000000E+00  0.00000000E+00  0.00000000E+00
Nuclear GFac                               R   N=          18
  0.00000000E+00  2.79284600E+00  2.79284600E+00  0.00000000E+00  2.79284600E+00
  2.79284600E+00  0.00000000E+00  2.79284600E+00  2.79284600E+00  0.00000000E+00
  2.79284600E+00  2.79284600E+00  0.00000000E+00  2.79284600E+00  2.79284600E+00
  0.00000000E+00  2.79284600E+00  2.79284600E+00
MicOpt                                     I   N=          18
          -1          -1          -1          -1          -1          -1
          -1          -1          -1          -1          -1          -1
          -1          -1          -1          -1          -1          -1
Number of residues                         I                0
Number of secondary structures             I                0
Redundant internal dimensions              I   N=           4
         108          18          36          54
Redundant internal coordinate indices      I   N=         432
           1           2           0           0           1           3
           0           0           1           4           0           0
           1          16           0           0           4           5
           0           0           4           6           0           0
           4           7           0           0           7           8
           0           0           7           9           0           0
           7          10           0           0          10          11
           0           0          10          12           0           0
          10          13           0           0          13          14
           0           0          13          15           0           0
          13          16           0           0          16          17
           0           0          16          18           0           0
           2           1           3           0           2           1
           4           0           2           1          16           0
           3           1           4           0           3           1
          16           0           4           1          16           0
           1           4           5           0           1           4
           6           0           1           4           7           0
           5           4           6           0           5           4
           7           0           6           4           7           0
           4           7           8           0           4           7
           9           0           4           7          10           0
           8           7           9           0           8           7
          10           0           9           7          10           0
           7          10          11           0           7          10
          12           0           7          10          13           0
          11          10          12           0          11          10
          13           0          12          10          13           0
          10          13          14           0          10          13
          15           0          10          13          16           0
          14          13          15           0          14          13
          16           0          15          13          16           0
           1          16          13           0           1          16
          17           0           1          16          18           0
          13          16          17           0          13          16
          18           0          17          16          18           0
           2           1           4           5           2           1
           4           6           2           1           4           7
           3           1           4           5           3           1
           4           6           3           1           4           7
          16           1           4           5          16           1
           4           6          16           1           4           7
           2           1          16          13           2           1
          16          17           2           1          16          18
           3           1          16          13           3           1
          16          17           3           1          16          18
           4           1          16          13           4           1
          16          17           4           1          16          18
           1           4           7           8           1           4
           7           9           1           4           7          10
           5           4           7           8           5           4
           7           9           5           4           7          10
           6           4           7           8           6           4
           7           9           6           4           7          10
           4           7          10          11           4           7
          10          12           4           7          10          13
           8           7          10          11           8           7
          10          12           8           7          10          13
           9           7          10          11           9           7
          10          12           9           7          10          13
           7          10          13          14           7          10
          13          15           7          10          13          16
          11          10          13          14          11          10
          13          15          11          10          13          16
          12          10          13          14          12          10
          13          15          12          10          13          16
          10          13          16           1          10          13
          16          17          10          13          16          18
          14          13          16           1          14          13
          16          17          14          13          16          18
          15          13          16           1          15          13
          16          17          15          13          16          18
Redundant internal coordinates             R   N=         108
  2.11980001E+00  2.07074588E+00  2.83985823E+00  3.07032848E+00  2.16849370E+00
  2.07638561E+00  2.84001811E+00  2.07075685E+00  2.11972673E+00  3.07032848E+00
  2.11980001E+00  2.07074588E+00  2.83985823E+00  2.16849370E+00  2.07638561E+00
  2.84001811E+00  2.11972673E+00  2.07075685E+00  1.93792959E+00  1.97943599E+00
  1.81083721E+00  1.95617099E+00  1.87041662E+00  1.89968156E+00  1.79291353E+00
  1.93418479E+00  2.06862942E+00  1.92767691E+00  1.79234014E+00  1.93410344E+00
  1.95622747E+00  1.97990553E+00  1.89915960E+00  1.93792721E+00  1.87015997E+00
  1.81103766E+00  1.81083721E+00  1.87041662E+00  1.89968156E+00  1.93792959E+00
  1.97943599E+00  1.95617099E+00  1.79291353E+00  1.93418479E+00  2.06862942E+00
  1.92767691E+00  1.79234014E+00  1.93410344E+00  1.89915960E+00  1.81103766E+00
  1.87015997E+00  1.97990553E+00  1.95622747E+00  1.93792721E+00 -1.35735578E+00
  7.01663007E-01  2.96617162E+00  8.54146699E-01  2.91316548E+00 -1.10551121E+00
  2.91990675E+00 -1.30425978E+00  9.60248837E-01 -2.97683377E+00  1.19322550E+00
 -8.58227484E-01  1.25487905E+00 -8.58246981E-01 -2.90969997E+00 -8.64107785E-01
 -2.97723382E+00  1.25449850E+00  1.10514546E+00 -2.96610358E+00 -9.59994552E-01
 -8.54827943E-01  1.35710832E+00 -2.91996796E+00 -2.91349404E+00 -7.01557774E-01
  1.30455125E+00  2.97683377E+00 -1.25487905E+00  8.64107785E-01  8.58227484E-01
  2.90969997E+00 -1.25449850E+00 -1.19322550E+00  8.58246981E-01  2.97723382E+00
 -2.91990675E+00  1.30425978E+00 -9.60248837E-01  1.35735578E+00 -7.01663007E-01
 -2.96617162E+00 -8.54146699E-01 -2.91316548E+00  1.10551121E+00  9.59994552E-01
  2.96610358E+00 -1.10514546E+00  2.91996796E+00 -1.35710832E+00  8.54827943E-01
 -1.30455125E+00  7.01557774E-01  2.91349404E+00
ZRed-IntVec                                I   N=         108
           0           0           0           0           0           0
           0           0           0           0           0           0
           0           0           0           0           0           0
           0           0           0           0           0           0
           0           0           0           0           0           0
           0           0           0           0           0           0
           0           0           0           0           0           0
           0           0           0           0           0           0
           0           0           0           0           0           0
           0           0           0           0           0           0
           0           0           0           0           0           0
           0           0           0           0           0           0
           0           0           0           0           0           0
           0           0           0           0           0           0
           0           0           0           0           0           0
           0           0           0           0           0           0
           0           0           0           0           0           0
           0           0           0           0           0           0
ZRed-FPVec                                 R   N=         108
  0.00000000E+00  0.00000000E+00  0.00000000E+00  0.00000000E+00  0.00000000E+00
  0.00000000E+00  0.00000000E+00  0.00000000E+00  0.00000000E+00  0.00000000E+00
  0.00000000E+00  0.00000000E+00  0.00000000E+00  0.00000000E+00  0.00000000E+00
  0.00000000E+00  0.00000000E+00  0.00000000E+00  0.00000000E+00  0.00000000E+00
  0.00000000E+00  0.00000000E+00  0.00000000E+00  0.00000000E+00  0.00000000E+00
  0.00000000E+00  0.00000000E+00  0.00000000E+00  0.00000000E+00  0.00000000E+00
  0.00000000E+00  0.00000000E+00  0.00000000E+00  0.00000000E+00  0.00000000E+00
  0.00000000E+00  0.00000000E+00  0.00000000E+00  0.00000000E+00  0.00000000E+00
  0.00000000E+00  0.00000000E+00  0.00000000E+00  0.00000000E+00  0.00000000E+00
  0.00000000E+00  0.00000000E+00  0.00000000E+00  0.00000000E+00  0.00000000E+00
  0.00000000E+00  0.00000000E+00  0.00000000E+00  0.00000000E+00  0.00000000E+00
  0.00000000E+00  0.00000000E+00  0.00000000E+00  0.00000000E+00  0.00000000E+00
  0.00000000E+00  0.00000000E+00  0.00000000E+00  0.00000000E+00  0.00000000E+00
  0.00000000E+00  0.00000000E+00  0.00000000E+00  0.00000000E+00  0.00000000E+00
  0.00000000E+00  0.00000000E+00  0.00000000E+00  0.00000000E+00  0.00000000E+00
  0.00000000E+00  0.00000000E+00  0.00000000E+00  0.00000000E+00  0.00000000E+00
  0.00000000E+00  0.00000000E+00  0.00000000E+00  0.00000000E+00  0.00000000E+00
  0.00000000E+00  0.00000000E+00  0.00000000E+00  0.00000000E+00  0.00000000E+00
  0.00000000E+00  0.00000000E+00  0.00000000E+00  0.00000000E+00  0.00000000E+00
  0.00000000E+00  0.00000000E+00  0.00000000E+00  0.00000000E+00  0.00000000E+00
  0.00000000E+00  0.00000000E+00  0.00000000E+00  0.00000000E+00  0.00000000E+00
  0.00000000E+00  0.00000000E+00  0.00000000E+00
ZRed-Constraint1                           R   N=         108
  2.11980001E+00  2.07074588E+00  2.83985823E+00  3.07032848E+00  2.16849370E+00
  2.07638561E+00  2.84001811E+00  2.07075685E+00  2.11972673E+00  3.07032848E+00
  2.11980001E+00  2.07074588E+00  2.83985823E+00  2.16849370E+00  2.07638561E+00
  2.84001811E+00  2.11972673E+00  2.07075685E+00  1.93792959E+00  1.97943599E+00
  1.81083721E+00  1.95617099E+00  1.87041662E+00  1.89968156E+00  1.79291353E+00
  1.93418479E+00  2.06862942E+00  1.92767691E+00  1.79234014E+00  1.93410344E+00
  1.95622747E+00  1.97990553E+00  1.89915960E+00  1.93792721E+00  1.87015997E+00
  1.81103766E+00  1.81083721E+00  1.87041662E+00  1.89968156E+00  1.93792959E+00
  1.97943599E+00  1.95617099E+00  1.79291353E+00  1.93418479E+00  2.06862942E+00
  1.92767691E+00  1.79234014E+00  1.93410344E+00  1.89915960E+00  1.81103766E+00
  1.87015997E+00  1.97990553E+00  1.95622747E+00  1.93792721E+00 -1.35735578E+00
  7.01663007E-01  2.96617162E+00  8.54146699E-01  2.91316548E+00 -1.10551121E+00
  2.91990675E+00 -1.30425978E+00  9.60248837E-01 -2.97683377E+00  1.19322550E+00
 -8.58227484E-01  1.25487905E+00 -8.58246981E-01 -2.90969997E+00 -8.64107785E-01
 -2.97723382E+00  1.25449850E+00  1.10514546E+00 -2.96610358E+00 -9.59994552E-01
 -8.54827943E-01  1.35710832E+00 -2.91996796E+00 -2.91349404E+00 -7.01557774E-01
  1.30455125E+00  2.97683377E+00 -1.25487905E+00  8.64107785E-01  8.58227484E-01
  2.90969997E+00 -1.25449850E+00 -1.19322550E+00  8.58246981E-01  2.97723382E+00
 -2.91990675E+00  1.30425978E+00 -9.60248837E-01  1.35735578E+00 -7.01663007E-01
 -2.96617162E+00 -8.54146699E-01 -2.91316548E+00  1.10551121E+00  9.59994552E-01
  2.96610358E+00 -1.10514546E+00  2.91996796E+00 -1.35710832E+00  8.54827943E-01
 -1.30455125E+00  7.01557774E-01  2.91349404E+00
ZRed-Constraint2                           R   N=         108
  2.02200696E+00  2.02200695E+00  2.91017824E+00  2.91017823E+00  2.02200694E+00
  2.02200696E+00  2.91017823E+00  2.02200695E+00  2.02200695E+00  2.91017823E+00
  2.02200696E+00  2.02200695E+00  2.91017823E+00  2.02200696E+00  2.02200695E+00
  2.91017823E+00  2.02200694E+00  2.02200695E+00  1.91063324E+00  1.91063324E+00
  1.91063323E+00  1.91063323E+00  1.91063323E+00  1.91063324E+00  1.91063323E+00
  1.91063323E+00  1.91063324E+00  1.91063324E+00  1.91063325E+00  1.91063323E+00
  1.91063323E+00  1.91063323E+00  1.91063324E+00  1.91063323E+00  1.91063323E+00
  1.91063324E+00  1.91063323E+00  1.91063323E+00  1.91063324E+00  1.91063324E+00
  1.91063324E+00  1.91063324E+00  1.91063324E+00  1.91063324E+00  1.91063324E+00
  1.91063323E+00  1.91063324E+00  1.91063324E+00  1.91063323E+00  1.91063324E+00
  1.91063323E+00  1.91063324E+00  1.91063324E+00  1.91063324E+00 -1.04719755E+00
  1.04719756E+00  3.14159265E+00  1.04719756E+00  3.14159265E+00 -1.04719756E+00
  3.14159265E+00 -1.04719755E+00  1.04719754E+00  3.14159265E+00  1.04719755E+00
 -1.04719755E+00  1.04719756E+00 -1.04719755E+00  3.14159265E+00 -1.04719754E+00
  3.14159265E+00  1.04719755E+00  1.04719756E+00  3.14159265E+00 -1.04719754E+00
 -1.04719755E+00  1.04719755E+00  3.14159265E+00  3.14159265E+00 -1.04719757E+00
  1.04719755E+00  3.14159265E+00 -1.04719756E+00  1.04719755E+00  1.04719755E+00
  3.14159265E+00 -1.04719755E+00 -1.04719755E+00  1.04719755E+00  3.14159265E+00
  3.14159265E+00  1.04719755E+00 -1.04719755E+00  1.04719755E+00 -1.04719755E+00
  3.14159265E+00 -1.04719756E+00  3.14159265E+00  1.04719755E+00  1.04719755E+00
  3.14159265E+00 -1.04719755E+00  3.14159265E+00 -1.04719755E+00  1.04719756E+00
 -1.04719756E+00  1.04719755E+00  3.14159265E+00
SymInf integers                            I   N=          26
           2           2           1           1           1          -1
          -1          -1           0           0           0           0
           0           0           0           0           0           0
           0           0           0           0           0           0
           0           0
RotTr to input orientation                 R   N=          12
 -1.00000000E+00  0.00000000E+00  0.00000000E+00  0.00000000E+00 -1.00000000E+00
  0.00000000E+00  0.00000000E+00  0.00000000E+00  1.00000000E+00 -4.81745261E-01
  1.06886803E-01  4.14605449E-01
Number of contracted shells                I               48
Number of primitive shells                 I              114
Pure/Cartesian d shells                    I                1
Pure/Cartesian f shells                    I                0
Highest angular momentum                   I                2
Largest degree of contraction              I                6
Shell types                                I   N=          48
           0          -1          -1           2           0           0
           0           0           0          -1          -1           2
           0           0           0           0           0          -1
          -1           2           0           0           0           0
           0          -1          -1           2           0           0
           0           0           0          -1          -1           2
           0           0           0           0           0          -1
          -1           2           0           0           0           0
Number of primitives per shell             I   N=          48
           6           3           1           1           3           1
           3           1           6           3           1           1
           3           1           3           1           6           3
           1           1           3           1           3           1
           6           3           1           1           3           1
           3           1           6           3           1           1
           3           1           3           1           6           3
           1           1           3           1           3           1
Shell to atom map                          I   N=          48
           1           1           1           1           2           2
           3           3           4           4           4           4
           5           5           6           6           7           7
           7           7           8           8           9           9
          10          10          10          10          11          11
          12          12          13          13          13          13
          14          14          15          15          16          16
          16          16          17          17          18          18
Primitive exponents                        R   N=         114
  3.04752488E+03  4.57369518E+02  1.03948685E+02  2.92101553E+01  9.28666296E+00
  3.16392696E+00  7.86827235E+00  1.88128854E+00  5.44249258E-01  1.68714478E-01
  8.00000000E-01  1.87311370E+01  2.82539436E+00  6.40121692E-01  1.61277759E-01
  1.87311370E+01  2.82539436E+00  6.40121692E-01  1.61277759E-01  3.04752488E+03
  4.57369518E+02  1.03948685E+02  2.92101553E+01  9.28666296E+00  3.16392696E+00
  7.86827235E+00  1.88128854E+00  5.44249258E-01  1.68714478E-01  8.00000000E-01
  1.87311370E+01  2.82539436E+00  6.40121692E-01  1.61277759E-01  1.87311370E+01
  2.82539436E+00  6.40121692E-01  1.61277759E-01  3.04752488E+03  4.57369518E+02
  1.03948685E+02  2.92101553E+01  9.28666296E+00  3.16392696E+00  7.86827235E+00
  1.88128854E+00  5.44249258E-01  1.68714478E-01  8.00000000E-01  1.87311370E+01
  2.82539436E+00  6.40121692E-01  1.61277759E-01  1.87311370E+01  2.82539436E+00
  6.40121692E-01  1.61277759E-01  3.04752488E+03  4.57369518E+02  1.03948685E+02
  2.92101553E+01  9.28666296E+00  3.16392696E+00  7.86827235E+00  1.88128854E+00
  5.44249258E-01  1.68714478E-01  8.00000000E-01  1.87311370E+01  2.82539436E+00
  6.40121692E-01  1.61277759E-01  1.87311370E+01  2.82539436E+00  6.40121692E-01
  1.61277759E-01  3.04752488E+03  4.57369518E+02  1.03948685E+02  2.92101553E+01
  9.28666296E+00  3.16392696E+00  7.86827235E+00  1.88128854E+00  5.44249258E-01
  1.68714478E-01  8.00000000E-01  1.87311370E+01  2.82539436E+00  6.40121692E-01
  1.61277759E-01  1.87311370E+01  2.82539436E+00  6.40121692E-01  1.61277759E-01
  3.04752488E+03  4.57369518E+02  1.03948685E+02  2.92101553E+01  9.28666296E+00
  3.16392696E+00  7.86827235E+00  1.88128854E+00  5.44249258E-01  1.68714478E-01
  8.00000000E-01  1.87311370E+01  2.82539436E+00  6.40121692E-01  1.61277759E-01
  1.87311370E+01  2.82539436E+00  6.40121692E-01  1.61277759E-01
Contraction coefficients                   R   N=         114
  1.83473713E-03  1.40373228E-02  6.88426223E-02  2.32184443E-01  4.67941348E-01
  3.62311985E-01 -1.19332420E-01 -1.60854152E-01  1.14345644E+00  1.00000000E+00
  1.00000000E+00  3.34946043E-02  2.34726953E-01  8.13757326E-01  1.00000000E+00
  3.34946043E-02  2.34726953E-01  8.13757326E-01  1.00000000E+00  1.83473713E-03
  1.40373228E-02  6.88426223E-02  2.32184443E-01  4.67941348E-01  3.62311985E-01
 -1.19332420E-01 -1.60854152E-01  1.14345644E+00  1.00000000E+00  1.00000000E+00
  3.34946043E-02  2.34726953E-01  8.13757326E-01  1.00000000E+00  3.34946043E-02
  2.34726953E-01  8.13757326E-01  1.00000000E+00  1.83473713E-03  1.40373228E-02
  6.88426223E-02  2.32184443E-01  4.67941348E-01  3.62311985E-01 -1.19332420E-01
 -1.60854152E-01  1.14345644E+00  1.00000000E+00  1.00000000E+00  3.34946043E-02
  2.34726953E-01  8.13757326E-01  1.00000000E+00  3.34946043E-02  2.34726953E-01
  8.13757326E-01  1.00000000E+00  1.83473713E-03  1.40373228E-02  6.88426223E-02
  2.32184443E-01  4.67941348E-01  3.62311985E-01 -1.19332420E-01 -1.60854152E-01
  1.14345644E+00  1.00000000E+00  1.00000000E+00  3.34946043E-02  2.34726953E-01
  8.13757326E-01  1.00000000E+00  3.34946043E-02  2.34726953E-01  8.13757326E-01
  1.00000000E+00  1.83473713E-03  1.40373228E-02  6.88426223E-02  2.32184443E-01
  4.67941348E-01  3.62311985E-01 -1.19332420E-01 -1.60854152E-01  1.14345644E+00
  1.00000000E+00  1.00000000E+00  3.34946043E-02  2.34726953E-01  8.13757326E-01
  1.00000000E+00  3.34946043E-02  2.34726953E-01  8.13757326E-01  1.00000000E+00
  1.83473713E-03  1.40373228E-02  6.88426223E-02  2.32184443E-01  4.67941348E-01
  3.62311985E-01 -1.19332420E-01 -1.60854152E-01  1.14345644E+00  1.00000000E+00
  1.00000000E+00  3.34946043E-02  2.34726953E-01  8.13757326E-01  1.00000000E+00
  3.34946043E-02  2.34726953E-01  8.13757326E-01  1.00000000E+00
P(S=P) Contraction coefficients            R   N=         114
  0.00000000E+00  0.00000000E+00  0.00000000E+00  0.00000000E+00  0.00000000E+00
  0.00000000E+00  6.89990666E-02  3.16423961E-01  7.44308291E-01  1.00000000E+00
  0.00000000E+00  0.00000000E+00  0.00000000E+00  0.00000000E+00  0.00000000E+00
  0.00000000E+00  0.00000000E+00  0.00000000E+00  0.00000000E+00  0.00000000E+00
  0.00000000E+00  0.00000000E+00  0.00000000E+00  0.00000000E+00  0.00000000E+00
  6.89990666E-02  3.16423961E-01  7.44308291E-01  1.00000000E+00  0.00000000E+00
  0.00000000E+00  0.00000000E+00  0.00000000E+00  0.00000000E+00  0.00000000E+00
  0.00000000E+00  0.00000000E+00  0.00000000E+00  0.00000000E+00  0.00000000E+00
  0.00000000E+00  0.00000000E+00  0.00000000E+00  0.00000000E+00  6.89990666E-02
  3.16423961E-01  7.44308291E-01  1.00000000E+00  0.00000000E+00  0.00000000E+00
  0.00000000E+00  0.00000000E+00  0.00000000E+00  0.00000000E+00  0.00000000E+00
  0.00000000E+00  0.00000000E+00  0.00000000E+00  0.00000000E+00  0.00000000E+00
  0.00000000E+00  0.00000000E+00  0.00000000E+00  6.89990666E-02  3.16423961E-01
  7.44308291E-01  1.00000000E+00  0.00000000E+00  0.00000000E+00  0.00000000E+00
  0.00000000E+00  0.00000000E+00  0.00000000E+00  0.00000000E+00  0.00000000E+00
  0.00000000E+00  0.00000000E+00  0.00000000E+00  0.00000000E+00  0.00000000E+00
  0.00000000E+00  0.00000000E+00  6.89990666E-02  3.16423961E-01  7.44308291E-01
  1.00000000E+00  0.00000000E+00  0.00000000E+00  0.00000000E+00  0.00000000E+00
  0.00000000E+00  0.00000000E+00  0.00000000E+00  0.00000000E+00  0.00000000E+00